

10 atoms

-5 5 xlo xhi
-5 5 xlo xhi
-5 5 xlo xhi


Atoms

1 0 0 -0.133974596
1 0 0 0.866025404
1 -0.707106781 -0.707106781 -0.866025404
1 -0.707106781  0.707106781 -0.866025404
1  0.707106781 -0.707106781 -0.866025404
1  0.707106781  0.707106781 -0.866025404
1 -1 0 0
1 0 -1 0
1 1 0 0
1 0 1 0
