16
Energy =   92.92035396234461
Si  -0.11564934688362 -0.45611058279735 -0.88237654367376
Si  -0.21185951021077  0.97352308270011 -0.08583912501494
Si   0.63823805374955 -0.76812271983004  0.05137775809515
Si   0.64117067366140  0.71497983188846 -0.27875438513023
Si  -0.84380809002015  0.47133611793058  0.25657390972325
Si  -0.01268589797089 -0.72495319505908  0.68868129999754
Si  -0.77215247737937 -0.40813759573353  0.48703619436932
Si   0.32121938264953  0.75289718550532  0.57442487434687
Si   0.14366770349070  0.41811095882347 -0.89696310798462
Si  -0.85570268070890 -0.37605299181287 -0.35546739593976
Si   0.70814947952590 -0.25701684285194 -0.65762197130085
Si   0.53061198011097 -0.09328858116665  0.84246552878241
Si  -0.66159378590018  0.40013081720988 -0.63418372068133
Si  -0.18556077245003 -0.96721645976412 -0.17337681416241
Si   0.98668448540003  0.06921075410141  0.14718558960577
Si  -0.31072919707585  0.25071022088539  0.91683790891749
