8
Energy =   19.67528786123277
Si  -0.38241873386814  0.69458145082033 -0.60935418285511
Si  -0.24962099607594 -0.74050950296662  0.62396717408385
Si  -0.78719346480274  0.41721833239686  0.45415340148879
Si  -0.73868542318745 -0.52809845878185 -0.41887451987750
Si   0.81188134522880 -0.56066986337472  0.16278201857963
Si   0.71399754276139  0.67154998975971 -0.19806090019092
Si   0.32281691811732 -0.34825881919055 -0.88005967538187
Si   0.30922281182675  0.39418687133684  0.86544668415312
